# vtk DataFile Version 3.0
vtk output
ASCII
DATASET UNSTRUCTURED_GRID
POINTS 2601 double
0 1 0 0 0 0 1 1 0 
1 0 0 0 0.98 0 0 0.96 0 
0 0.94 0 0 0.92 0 0 0.9 0 
0 0.88 0 0 0.86 0 0 0.84 0 
0 0.82 0 0 0.8 0 0 0.78 0 
0 0.76 0 0 0.74 0 0 0.72 0 
0 0.7 0 0 0.68 0 0 0.66 0 
0 0.64 0 0 0.62 0 0 0.6 0 
0 0.58 0 0 0.56 0 0 0.54 0 
0 0.52 0 0 0.5 0 0 0.48 0 
0 0.46 0 0 0.44 0 0 0.42 0 
0 0.4 0 0 0.38 0 0 0.36 0 
0 0.34 0 0 0.32 0 0 0.3 0 
0 0.28 0 0 0.26 0 0 0.24 0 
0 0.22 0 0 0.2 0 0 0.18 0 
0 0.16 0 0 0.14 0 0 0.12 0 
0 0.1 0 0 0.08 0 0 0.06 0 
0 0.04 0 0 0.02 0 0.98 1 0 
0.96 1 0 0.94 1 0 0.92 1 0 
0.9 1 0 0.88 1 0 0.86 1 0 
0.84 1 0 0.82 1 0 0.8 1 0 
0.78 1 0 0.76 1 0 0.74 1 0 
0.72 1 0 0.7 1 0 0.68 1 0 
0.66 1 0 0.64 1 0 0.62 1 0 
0.6 1 0 0.58 1 0 0.56 1 0 
0.54 1 0 0.52 1 0 0.5 1 0 
0.48 1 0 0.46 1 0 0.44 1 0 
0.42 1 0 0.4 1 0 0.38 1 0 
0.36 1 0 0.34 1 0 0.32 1 0 
0.3 1 0 0.28 1 0 0.26 1 0 
0.24 1 0 0.22 1 0 0.2 1 0 
0.18 1 0 0.16 1 0 0.14 1 0 
0.12 1 0 0.1 1 0 0.08 1 0 
0.06 1 0 0.04 1 0 0.02 1 0 
1 0.02 0 1 0.04 0 1 0.06 0 
1 0.08 0 1 0.1 0 1 0.12 0 
1 0.14 0 1 0.16 0 1 0.18 0 
1 0.2 0 1 0.22 0 1 0.24 0 
1 0.26 0 1 0.28 0 1 0.3 0 
1 0.32 0 1 0.34 0 1 0.36 0 
1 0.38 0 1 0.4 0 1 0.42 0 
1 0.44 0 1 0.46 0 1 0.48 0 
1 0.5 0 1 0.52 0 1 0.54 0 
1 0.56 0 1 0.58 0 1 0.6 0 
1 0.62 0 1 0.64 0 1 0.66 0 
1 0.68 0 1 0.7 0 1 0.72 0 
1 0.74 0 1 0.76 0 1 0.78 0 
1 0.8 0 1 0.82 0 1 0.84 0 
1 0.86 0 1 0.88 0 1 0.9 0 
1 0.92 0 1 0.94 0 1 0.96 0 
1 0.98 0 0.02 0 0 0.04 0 0 
0.06 0 0 0.08 0 0 0.1 0 0 
0.12 0 0 0.14 0 0 0.16 0 0 
0.18 0 0 0.2 0 0 0.22 0 0 
0.24 0 0 0.26 0 0 0.28 0 0 
0.3 0 0 0.32 0 0 0.34 0 0 
0.36 0 0 0.38 0 0 0.4 0 0 
0.42 0 0 0.44 0 0 0.46 0 0 
0.48 0 0 0.5 0 0 0.52 0 0 
0.54 0 0 0.56 0 0 0.58 0 0 
0.6 0 0 0.62 0 0 0.64 0 0 
0.66 0 0 0.68 0 0 0.7 0 0 
0.72 0 0 0.74 0 0 0.76 0 0 
0.78 0 0 0.8 0 0 0.82 0 0 
0.84 0 0 0.86 0 0 0.88 0 0 
0.9 0 0 0.92 0 0 0.94 0 0 
0.96 0 0 0.98 0 0 0.02 0.02 0 
0.02 0.04 0 0.02 0.06 0 0.02 0.08 0 
0.02 0.1 0 0.02 0.12 0 0.02 0.14 0 
0.02 0.16 0 0.02 0.18 0 0.02 0.2 0 
0.02 0.22 0 0.02 0.24 0 0.02 0.26 0 
0.02 0.28 0 0.02 0.3 0 0.02 0.32 0 
0.02 0.34 0 0.02 0.36 0 0.02 0.38 0 
0.02 0.4 0 0.02 0.42 0 0.02 0.44 0 
0.02 0.46 0 0.02 0.48 0 0.02 0.5 0 
0.02 0.52 0 0.02 0.54 0 0.02 0.56 0 
0.02 0.58 0 0.02 0.6 0 0.02 0.62 0 
0.02 0.64 0 0.02 0.66 0 0.02 0.68 0 
0.02 0.7 0 0.02 0.72 0 0.02 0.74 0 
0.02 0.76 0 0.02 0.78 0 0.02 0.8 0 
0.02 0.82 0 0.02 0.84 0 0.02 0.86 0 
0.02 0.88 0 0.02 0.9 0 0.02 0.92 0 
0.02 0.94 0 0.02 0.96 0 0.02 0.98 0 
0.04 0.02 0 0.04 0.04 0 0.04 0.06 0 
0.04 0.08 0 0.04 0.1 0 0.04 0.12 0 
0.04 0.14 0 0.04 0.16 0 0.04 0.18 0 
0.04 0.2 0 0.04 0.22 0 0.04 0.24 0 
0.04 0.26 0 0.04 0.28 0 0.04 0.3 0 
0.04 0.32 0 0.04 0.34 0 0.04 0.36 0 
0.04 0.38 0 0.04 0.4 0 0.04 0.42 0 
0.04 0.44 0 0.04 0.46 0 0.04 0.48 0 
0.04 0.5 0 0.04 0.52 0 0.04 0.54 0 
0.04 0.56 0 0.04 0.58 0 0.04 0.6 0 
0.04 0.62 0 0.04 0.64 0 0.04 0.66 0 
0.04 0.68 0 0.04 0.7 0 0.04 0.72 0 
0.04 0.74 0 0.04 0.76 0 0.04 0.78 0 
0.04 0.8 0 0.04 0.82 0 0.04 0.84 0 
0.04 0.86 0 0.04 0.88 0 0.04 0.9 0 
0.04 0.92 0 0.04 0.94 0 0.04 0.96 0 
0.04 0.98 0 0.06 0.02 0 0.06 0.04 0 
0.06 0.06 0 0.06 0.08 0 0.06 0.1 0 
0.06 0.12 0 0.06 0.14 0 0.06 0.16 0 
0.06 0.18 0 0.06 0.2 0 0.06 0.22 0 
0.06 0.24 0 0.06 0.26 0 0.06 0.28 0 
0.06 0.3 0 0.06 0.32 0 0.06 0.34 0 
0.06 0.36 0 0.06 0.38 0 0.06 0.4 0 
0.06 0.42 0 0.06 0.44 0 0.06 0.46 0 
0.06 0.48 0 0.06 0.5 0 0.06 0.52 0 
0.06 0.54 0 0.06 0.56 0 0.06 0.58 0 
0.06 0.6 0 0.06 0.62 0 0.06 0.64 0 
0.06 0.66 0 0.06 0.68 0 0.06 0.7 0 
0.06 0.72 0 0.06 0.74 0 0.06 0.76 0 
0.06 0.78 0 0.06 0.8 0 0.06 0.82 0 
0.06 0.84 0 0.06 0.86 0 0.06 0.88 0 
0.06 0.9 0 0.06 0.92 0 0.06 0.94 0 
0.06 0.96 0 0.06 0.98 0 0.08 0.02 0 
0.08 0.04 0 0.08 0.06 0 0.08 0.08 0 
0.08 0.1 0 0.08 0.12 0 0.08 0.14 0 
0.08 0.16 0 0.08 0.18 0 0.08 0.2 0 
0.08 0.22 0 0.08 0.24 0 0.08 0.26 0 
0.08 0.28 0 0.08 0.3 0 0.08 0.32 0 
0.08 0.34 0 0.08 0.36 0 0.08 0.38 0 
0.08 0.4 0 0.08 0.42 0 0.08 0.44 0 
0.08 0.46 0 0.08 0.48 0 0.08 0.5 0 
0.08 0.52 0 0.08 0.54 0 0.08 0.56 0 
0.08 0.58 0 0.08 0.6 0 0.08 0.62 0 
0.08 0.64 0 0.08 0.66 0 0.08 0.68 0 
0.08 0.7 0 0.08 0.72 0 0.08 0.74 0 
0.08 0.76 0 0.08 0.78 0 0.08 0.8 0 
0.08 0.82 0 0.08 0.84 0 0.08 0.86 0 
0.08 0.88 0 0.08 0.9 0 0.08 0.92 0 
0.08 0.94 0 0.08 0.96 0 0.08 0.98 0 
0.1 0.02 0 0.1 0.04 0 0.1 0.06 0 
0.1 0.08 0 0.1 0.1 0 0.1 0.12 0 
0.1 0.14 0 0.1 0.16 0 0.1 0.18 0 
0.1 0.2 0 0.1 0.22 0 0.1 0.24 0 
0.1 0.26 0 0.1 0.28 0 0.1 0.3 0 
0.1 0.32 0 0.1 0.34 0 0.1 0.36 0 
0.1 0.38 0 0.1 0.4 0 0.1 0.42 0 
0.1 0.44 0 0.1 0.46 0 0.1 0.48 0 
0.1 0.5 0 0.1 0.52 0 0.1 0.54 0 
0.1 0.56 0 0.1 0.58 0 0.1 0.6 0 
0.1 0.62 0 0.1 0.64 0 0.1 0.66 0 
0.1 0.68 0 0.1 0.7 0 0.1 0.72 0 
0.1 0.74 0 0.1 0.76 0 0.1 0.78 0 
0.1 0.8 0 0.1 0.82 0 0.1 0.84 0 
0.1 0.86 0 0.1 0.88 0 0.1 0.9 0 
0.1 0.92 0 0.1 0.94 0 0.1 0.96 0 
0.1 0.98 0 0.12 0.02 0 0.12 0.04 0 
0.12 0.06 0 0.12 0.08 0 0.12 0.1 0 
0.12 0.12 0 0.12 0.14 0 0.12 0.16 0 
0.12 0.18 0 0.12 0.2 0 0.12 0.22 0 
0.12 0.24 0 0.12 0.26 0 0.12 0.28 0 
0.12 0.3 0 0.12 0.32 0 0.12 0.34 0 
0.12 0.36 0 0.12 0.38 0 0.12 0.4 0 
0.12 0.42 0 0.12 0.44 0 0.12 0.46 0 
0.12 0.48 0 0.12 0.5 0 0.12 0.52 0 
0.12 0.54 0 0.12 0.56 0 0.12 0.58 0 
0.12 0.6 0 0.12 0.62 0 0.12 0.64 0 
0.12 0.66 0 0.12 0.68 0 0.12 0.7 0 
0.12 0.72 0 0.12 0.74 0 0.12 0.76 0 
0.12 0.78 0 0.12 0.8 0 0.12 0.82 0 
0.12 0.84 0 0.12 0.86 0 0.12 0.88 0 
0.12 0.9 0 0.12 0.92 0 0.12 0.94 0 
0.12 0.96 0 0.12 0.98 0 0.14 0.02 0 
0.14 0.04 0 0.14 0.06 0 0.14 0.08 0 
0.14 0.1 0 0.14 0.12 0 0.14 0.14 0 
0.14 0.16 0 0.14 0.18 0 0.14 0.2 0 
0.14 0.22 0 0.14 0.24 0 0.14 0.26 0 
0.14 0.28 0 0.14 0.3 0 0.14 0.32 0 
0.14 0.34 0 0.14 0.36 0 0.14 0.38 0 
0.14 0.4 0 0.14 0.42 0 0.14 0.44 0 
0.14 0.46 0 0.14 0.48 0 0.14 0.5 0 
0.14 0.52 0 0.14 0.54 0 0.14 0.56 0 
0.14 0.58 0 0.14 0.6 0 0.14 0.62 0 
0.14 0.64 0 0.14 0.66 0 0.14 0.68 0 
0.14 0.7 0 0.14 0.72 0 0.14 0.74 0 
0.14 0.76 0 0.14 0.78 0 0.14 0.8 0 
0.14 0.82 0 0.14 0.84 0 0.14 0.86 0 
0.14 0.88 0 0.14 0.9 0 0.14 0.92 0 
0.14 0.94 0 0.14 0.96 0 0.14 0.98 0 
0.16 0.02 0 0.16 0.04 0 0.16 0.06 0 
0.16 0.08 0 0.16 0.1 0 0.16 0.12 0 
0.16 0.14 0 0.16 0.16 0 0.16 0.18 0 
0.16 0.2 0 0.16 0.22 0 0.16 0.24 0 
0.16 0.26 0 0.16 0.28 0 0.16 0.3 0 
0.16 0.32 0 0.16 0.34 0 0.16 0.36 0 
0.16 0.38 0 0.16 0.4 0 0.16 0.42 0 
0.16 0.44 0 0.16 0.46 0 0.16 0.48 0 
0.16 0.5 0 0.16 0.52 0 0.16 0.54 0 
0.16 0.56 0 0.16 0.58 0 0.16 0.6 0 
0.16 0.62 0 0.16 0.64 0 0.16 0.66 0 
0.16 0.68 0 0.16 0.7 0 0.16 0.72 0 
0.16 0.74 0 0.16 0.76 0 0.16 0.78 0 
0.16 0.8 0 0.16 0.82 0 0.16 0.84 0 
0.16 0.86 0 0.16 0.88 0 0.16 0.9 0 
0.16 0.92 0 0.16 0.94 0 0.16 0.96 0 
0.16 0.98 0 0.18 0.02 0 0.18 0.04 0 
0.18 0.06 0 0.18 0.08 0 0.18 0.1 0 
0.18 0.12 0 0.18 0.14 0 0.18 0.16 0 
0.18 0.18 0 0.18 0.2 0 0.18 0.22 0 
0.18 0.24 0 0.18 0.26 0 0.18 0.28 0 
0.18 0.3 0 0.18 0.32 0 0.18 0.34 0 
0.18 0.36 0 0.18 0.38 0 0.18 0.4 0 
0.18 0.42 0 0.18 0.44 0 0.18 0.46 0 
0.18 0.48 0 0.18 0.5 0 0.18 0.52 0 
0.18 0.54 0 0.18 0.56 0 0.18 0.58 0 
0.18 0.6 0 0.18 0.62 0 0.18 0.64 0 
0.18 0.66 0 0.18 0.68 0 0.18 0.7 0 
0.18 0.72 0 0.18 0.74 0 0.18 0.76 0 
0.18 0.78 0 0.18 0.8 0 0.18 0.82 0 
0.18 0.84 0 0.18 0.86 0 0.18 0.88 0 
0.18 0.9 0 0.18 0.92 0 0.18 0.94 0 
0.18 0.96 0 0.18 0.98 0 0.2 0.02 0 
0.2 0.04 0 0.2 0.06 0 0.2 0.08 0 
0.2 0.1 0 0.2 0.12 0 0.2 0.14 0 
0.2 0.16 0 0.2 0.18 0 0.2 0.2 0 
0.2 0.22 0 0.2 0.24 0 0.2 0.26 0 
0.2 0.28 0 0.2 0.3 0 0.2 0.32 0 
0.2 0.34 0 0.2 0.36 0 0.2 0.38 0 
0.2 0.4 0 0.2 0.42 0 0.2 0.44 0 
0.2 0.46 0 0.2 0.48 0 0.2 0.5 0 
0.2 0.52 0 0.2 0.54 0 0.2 0.56 0 
0.2 0.58 0 0.2 0.6 0 0.2 0.62 0 
0.2 0.64 0 0.2 0.66 0 0.2 0.68 0 
0.2 0.7 0 0.2 0.72 0 0.2 0.74 0 
0.2 0.76 0 0.2 0.78 0 0.2 0.8 0 
0.2 0.82 0 0.2 0.84 0 0.2 0.86 0 
0.2 0.88 0 0.2 0.9 0 0.2 0.92 0 
0.2 0.94 0 0.2 0.96 0 0.2 0.98 0 
0.22 0.02 0 0.22 0.04 0 0.22 0.06 0 
0.22 0.08 0 0.22 0.1 0 0.22 0.12 0 
0.22 0.14 0 0.22 0.16 0 0.22 0.18 0 
0.22 0.2 0 0.22 0.22 0 0.22 0.24 0 
0.22 0.26 0 0.22 0.28 0 0.22 0.3 0 
0.22 0.32 0 0.22 0.34 0 0.22 0.36 0 
0.22 0.38 0 0.22 0.4 0 0.22 0.42 0 
0.22 0.44 0 0.22 0.46 0 0.22 0.48 0 
0.22 0.5 0 0.22 0.52 0 0.22 0.54 0 
0.22 0.56 0 0.22 0.58 0 0.22 0.6 0 
0.22 0.62 0 0.22 0.64 0 0.22 0.66 0 
0.22 0.68 0 0.22 0.7 0 0.22 0.72 0 
0.22 0.74 0 0.22 0.76 0 0.22 0.78 0 
0.22 0.8 0 0.22 0.82 0 0.22 0.84 0 
0.22 0.86 0 0.22 0.88 0 0.22 0.9 0 
0.22 0.92 0 0.22 0.94 0 0.22 0.96 0 
0.22 0.98 0 0.24 0.02 0 0.24 0.04 0 
0.24 0.06 0 0.24 0.08 0 0.24 0.1 0 
0.24 0.12 0 0.24 0.14 0 0.24 0.16 0 
0.24 0.18 0 0.24 0.2 0 0.24 0.22 0 
0.24 0.24 0 0.24 0.26 0 0.24 0.28 0 
0.24 0.3 0 0.24 0.32 0 0.24 0.34 0 
0.24 0.36 0 0.24 0.38 0 0.24 0.4 0 
0.24 0.42 0 0.24 0.44 0 0.24 0.46 0 
0.24 0.48 0 0.24 0.5 0 0.24 0.52 0 
0.24 0.54 0 0.24 0.56 0 0.24 0.58 0 
0.24 0.6 0 0.24 0.62 0 0.24 0.64 0 
0.24 0.66 0 0.24 0.68 0 0.24 0.7 0 
0.24 0.72 0 0.24 0.74 0 0.24 0.76 0 
0.24 0.78 0 0.24 0.8 0 0.24 0.82 0 
0.24 0.84 0 0.24 0.86 0 0.24 0.88 0 
0.24 0.9 0 0.24 0.92 0 0.24 0.94 0 
0.24 0.96 0 0.24 0.98 0 0.26 0.02 0 
0.26 0.04 0 0.26 0.06 0 0.26 0.08 0 
0.26 0.1 0 0.26 0.12 0 0.26 0.14 0 
0.26 0.16 0 0.26 0.18 0 0.26 0.2 0 
0.26 0.22 0 0.26 0.24 0 0.26 0.26 0 
0.26 0.28 0 0.26 0.3 0 0.26 0.32 0 
0.26 0.34 0 0.26 0.36 0 0.26 0.38 0 
0.26 0.4 0 0.26 0.42 0 0.26 0.44 0 
0.26 0.46 0 0.26 0.48 0 0.26 0.5 0 
0.26 0.52 0 0.26 0.54 0 0.26 0.56 0 
0.26 0.58 0 0.26 0.6 0 0.26 0.62 0 
0.26 0.64 0 0.26 0.66 0 0.26 0.68 0 
0.26 0.7 0 0.26 0.72 0 0.26 0.74 0 
0.26 0.76 0 0.26 0.78 0 0.26 0.8 0 
0.26 0.82 0 0.26 0.84 0 0.26 0.86 0 
0.26 0.88 0 0.26 0.9 0 0.26 0.92 0 
0.26 0.94 0 0.26 0.96 0 0.26 0.98 0 
0.28 0.02 0 0.28 0.04 0 0.28 0.06 0 
0.28 0.08 0 0.28 0.1 0 0.28 0.12 0 
0.28 0.14 0 0.28 0.16 0 0.28 0.18 0 
0.28 0.2 0 0.28 0.22 0 0.28 0.24 0 
[...]
POINT_DATA 2601
SCALARS Result double
LOOKUP_TABLE default
0 0 1.26862 0 0 0 0 0 0 
0 0 0 -0 -0 -0 -0 -0 -0 
-0 -0 -0 -0 0 0 0 0 0 
0 0 0 0 0 0 -0 -0 -0 
-0 -0 -0 -0 -0 -0 -0 0 0 
0 0 0 0 0 0 0 0 1.64994 
1.88387 1.94952 1.84102 1.56807 1.15505 0.638858 0.065594 -0.513529 -1.04678 
-1.48653 -1.79348 -1.94024 -1.91367 -1.71617 -1.36536 -0.89259 -0.340088 0.242794 
0.803987 1.29336 1.66721 1.89212 1.94802 1.82991 1.54834 1.12846 0.607775 
0.0328016 -0.545102 -1.07431 -1.50756 -1.80614 -1.94338 -1.90703 -1.70033 -1.34174 
-0.863297 -0.30774 0.275306 0.83376 1.31774 1.684 1.89984 1.94598 1.81828 
1.52816 1.10154 0.57652 0.57652 1.10154 1.52816 1.81828 1.94598 1.89984 
1.684 1.31774 0.83376 0.275306 -0.30774 -0.863297 -1.34174 -1.70033 -1.90703 
-1.94338 -1.80614 -1.50756 -1.07431 -0.545102 0.0328016 0.607775 1.12846 1.54834 
1.82991 1.94802 1.89212 1.66721 1.29336 0.803987 0.242794 -0.340088 -0.89259 
-1.36536 -1.71617 -1.91367 -1.94024 -1.79348 -1.48653 -1.04678 -0.513529 0.065594 
0.638858 1.15505 1.56807 1.84102 1.94952 1.88387 1.64994 0 0 
0 0 0 0 0 0 0 0 -0 
-0 -0 -0 -0 -0 -0 -0 -0 -0 
0 0 0 0 0 0 0 0 0 
0 0 -0 -0 -0 -0 -0 -0 -0 
-0 -0 -0 0 0 0 0 0 0 
0 0 0.261997 0.50059 0.694467 0.826309 0.88434 0.863375 0.765287 
0.598839 0.378898 0.125111 -0.139851 -0.392321 -0.609746 -0.772705 -0.86664 -0.88316 
-0.820791 -0.685103 -0.488216 -0.247719 0.0149065 0.2762 0.512822 0.703635 0.831594 
0.885269 0.859866 0.757654 0.587762 0.365368 0.110336 -0.154551 -0.405633 -0.620481 
-0.779904 -0.869659 -0.881731 -0.81504 -0.675545 -0.475704 -0.233371 0.0298089 0.290326 
0.524909 0.712604 0.836643 0.885948 0.856114 0.749806 0.50059 0.956463 1.3269 
1.57881 1.68968 1.64963 1.46221 1.14419 0.72395 0.239047 -0.26721 -0.749598 
-1.16503 -1.47639 -1.65587 -1.68743 -1.56826 -1.30901 -0.932821 -0.47331 0.0284815 
0.527728 0.979835 1.34442 1.5889 1.69146 1.64292 1.44763 1.12302 0.698099 
0.210817 -0.295297 -0.775033 -1.18554 -1.49014 -1.66163 -1.6847 -1.55728 -1.29074 
-0.908916 -0.445896 0.056955 0.554718 1.00293 1.36155 1.59855 1.69276 1.63575 
1.43263 0.694467 1.3269 1.8408 2.19027 2.34409 2.28852 2.02853 1.58733 
1.00433 0.331629 -0.370699 -1.03991 -1.61624 -2.04819 -2.29718 -2.34097 -2.17565 
-1.81598 -1.2941 -0.656621 0.0395123 0.732116 1.35932 1.8651 2.20428 2.34656 
2.27922 2.00829 1.55796 0.96847 0.292465 -0.409665 -1.0752 -1.64469 -2.06727 
-2.30518 -2.33718 -2.1604 -1.79065 -1.26094 -0.61859 0.0790135 0.769559 1.39136 
1.88888 2.21767 2.34836 2.26928 1.98749 0.826309 1.57881 2.19027 2.60609 
2.78911 2.72299 2.41363 1.88867 1.195 0.394588 -0.441075 -1.23734 -1.92307 
-2.43703 -2.73329 -2.78539 -2.58869 -2.16074 -1.53978 -0.781278 0.0470136 0.871106 
1.61739 2.21919 2.62276 2.79204 2.71193 2.38956 1.85374 1.15233 0.347989 
-0.487438 -1.27932 -1.95693 -2.45973 -2.74281 -2.78089 -2.57055 -2.1306 -1.50032 
-0.736027 0.094014 0.915657 1.65551 2.24748 2.63868 2.79419 2.70009 2.36481 
0.88434 1.68968 2.34409 2.78911 2.98499 2.91422 2.58314 2.02131 1.27893 
0.4223 -0.472052 -1.32424 -2.05813 -2.60818 -2.92524 -2.98101 -2.77049 -2.31249 
-1.64792 -0.836147 0.0503153 0.932283 1.73097 2.37504 2.80695 2.98813 2.90238 
2.55737 1.98393 1.23326 0.372428 -0.52167 -1.36917 -2.09436 -2.63248 -2.93544 
-2.97618 -2.75108 -2.28022 -1.60569 -0.787717 0.100616 0.979962 1.77177 2.40531 
2.824 2.99042 2.88972 2.53088 0.863375 1.64963 2.28852 2.72299 2.91422 
2.84514 2.5219 1.97339 1.24861 0.412288 -0.460861 -1.29284 -2.00934 -2.54635 
-2.8559 -2.91034 -2.70481 -2.25766 -1.60885 -0.816324 0.0491225 0.910181 1.68994 
2.31873 2.74041 2.91729 2.83357 2.49675 1.93689 1.20402 0.363599 -0.509303 
-1.33671 -2.04471 -2.57007 -2.86585 -2.90563 -2.68586 -2.22617 -1.56762 -0.769043 
0.0982312 0.956731 1.72977 2.34829 2.75705 2.91953 2.82121 2.47089 0.765287 
1.46221 2.02853 2.41363 2.58314 2.5219 2.23539 1.7492 1.10675 0.365448 
-0.408503 -1.14596 -1.78106 -2.25706 -2.53144 -2.5797 -2.39752 -2.00117 -1.42607 
-0.723582 0.0435417 0.806776 1.49794 2.0553 2.42907 2.58586 2.51165 2.21309 
1.71684 1.06723 0.322291 -0.451442 -1.18485 -1.81242 -2.27808 -2.54026 -2.57552 
-2.38072 -1.97325 -1.38952 -0.681672 0.0870712 0.848037 1.53325 2.0815 2.44382 
2.58784 2.50069 2.19017 0.598839 1.14419 1.58733 1.88867 2.02131 1.97339 
1.7492 1.36875 0.866038 0.285964 -0.319654 -0.896719 -1.39368 -1.76615 -1.98086 
-2.01862 -1.87606 -1.56592 -1.1159 -0.566205 0.0340715 0.631304 1.17214 1.60828 
1.90075 2.02344 1.96537 1.73175 1.34343 0.835113 0.252193 -0.353254 -0.927146 
-1.41822 -1.78261 -1.98776 -2.01535 -1.86292 -1.54408 -1.08731 -0.53341 0.0681334 
0.663591 1.19977 1.62878 1.9123 2.02499 1.9568 1.71381 0.378898 0.72395 
1.00433 1.195 1.27893 1.24861 1.10675 0.866038 0.547961 0.180936 -0.202252 
-0.567373 -0.881812 -1.11748 -1.25333 -1.27722 -1.18702 -0.990792 -0.706056 -0.35825 
0.0215578 0.39944 0.741641 1.01759 1.20265 1.28027 1.24353 1.09572 0.850019 
0.528393 0.159568 -0.223511 -0.586625 -0.897337 -1.12789 -1.2577 -1.27516 -1.17871 
-0.976969 -0.687961 -0.3375 0.0431094 0.419868 0.759121 1.03056 1.20995 1.28125 
1.23811 1.08437 0.125111 0.239047 0.331629 0.394588 0.4223 0.412288 0.365448 
0.285964 0.180936 0.0597446 -0.0667832 -0.187345 -0.291173 -0.36899 -0.413847 -0.421736 
-0.391953 -0.327158 -0.233138 -0.118293 0.00711833 0.131894 0.244888 0.336007 0.397112 
0.422743 0.410613 0.361803 0.280675 0.174474 0.052689 -0.073803 -0.193702 -0.296299 
-0.372428 -0.415289 -0.421054 -0.389207 -0.322593 -0.227164 -0.111442 0.0142347 0.13864 
0.25066 0.34029 0.399523 0.423068 0.408821 0.358055 -0.139851 -0.26721 -0.370699 
-0.441075 -0.472052 -0.460861 -0.408503 -0.319654 -0.202252 -0.0667832 0.0746511 0.209417 
0.325476 0.412462 0.462604 0.471422 0.43813 0.365701 0.260605 0.13223 -0.00795696 
-0.147433 -0.273739 -0.375593 -0.443896 -0.472548 -0.458988 -0.404428 -0.313742 -0.19503 
-0.0588964 0.0824979 0.216523 0.331207 0.416305 0.464215 0.470659 0.43506 0.360599 
0.253926 0.124571 -0.0159117 -0.154973 -0.280191 -0.380381 -0.446592 -0.47291 -0.456985 
-0.400239 -0.392321 -0.749598 -1.03991 -1.23734 -1.32424 -1.29284 -1.14596 -0.896719 
-0.567373 -0.187345 0.209417 0.587473 0.913052 1.15707 1.29773 1.32247 1.22908 
1.02589 0.731069 0.370941 -0.0223215 -0.41359 -0.767914 -1.05364 -1.24525 -1.32563 
-1.28759 -1.13453 -0.880132 -0.547113 -0.165221 0.231429 0.607407 0.929127 1.16785 
1.30225 1.32033 1.22047 1.01158 0.712333 0.349456 -0.0446367 -0.434742 -0.786014 
-1.06707 -1.25281 -1.32664 -1.28197 -1.12278 -0.609746 -1.16503 -1.61624 -1.92307 
-2.05813 -2.00934 -1.78106 -1.39368 -0.881812 -0.291173 0.325476 0.913052 1.41907 
1.79832 2.01694 2.05538 1.91023 1.59444 1.13623 0.576518 -0.0346921 -0.642803 
-1.19349 -1.63757 -1.93537 -2.06029 -2.00117 -1.76329 -1.3679 -0.850323 -0.256787 
0.359688 0.944033 1.44405 1.81507 2.02396 2.05206 1.89685 1.5722 1.10711 
0.543126 -0.0693744 -0.675678 -1.22162 -1.65845 -1.94713 -2.06187 -1.99244 -1.74503 
-0.772705 -1.47639 -2.04819 -2.43703 -2.60818 -2.54635 -2.25706 -1.76615 -1.11748 
-0.36899 0.412462 1.15707 1.79832 2.27893 2.55597 2.6047 2.42075 2.02057 
1.43989 0.730595 -0.0439638 -0.814596 -1.51246 -2.07523 -2.45261 -2.61092 -2.536 
-2.23454 -1.73348 -1.07758 -0.325414 0.455817 1.19633 1.82998 2.30016 2.56488 
2.60048 2.40379 1.99238 1.40299 0.688279 -0.0879151 -0.856256 -1.54811 -2.10168 
-2.46751 -2.61292 -2.52493 -2.2114 -0.86664 -1.65587 -2.29718 -2.73329 -2.92524 
-2.8559 -2.53144 -1.98086 -1.25333 -0.413847 0.462604 1.29773 2.01694 2.55597 
2.8667 2.92134 2.71504 2.2662 1.61494 0.819411 -0.0493083 -0.913623 -1.69633 
-2.3275 -2.75077 -2.92832 -2.84429 -2.50619 -1.94422 -1.20857 -0.364974 0.511229 
1.34177 2.05245 2.57979 2.87668 2.91662 2.69601 2.23459 1.57355 0.771951 
-0.0986026 -0.960348 -1.73631 -2.35717 -2.76747 -2.93057 -2.83188 -2.48023 -0.88316 
-1.68743 -2.34097 -2.78539 -2.98101 -2.91034 -2.5797 -2.01862 -1.27722 -0.421736 
0.471422 1.32247 2.05538 2.6047 2.92134 2.97703 2.76679 2.3094 1.64572 
0.835031 -0.0502482 -0.931039 -1.72866 -2.37187 -2.80321 -2.98414 -2.89851 -2.55396 
-1.98128 -1.23161 -0.371931 0.520975 1.36734 2.09157 2.62897 2.93152 2.97221 
2.74741 2.27718 1.60354 0.786667 -0.100482 -0.978655 -1.76941 -2.4021 -2.82023 
-2.98643 -2.88586 -2.52751 -0.820791 -1.56826 -2.17565 -2.58869 -2.77049 -2.70481 
-2.39752 -1.87606 -1.18702 -0.391953 0.43813 1.22908 1.91023 2.42075 2.71504 
2.76679 2.5714 2.14631 1.5295 0.776061 -0.0466997 -0.865289 -1.60658 -2.20437 
-2.60524 -2.7734 -2.69381 -2.3736 -1.84136 -1.14464 -0.345665 0.484183 1.27078 
1.94386 2.44331 2.7245 2.76231 2.55338 2.11637 1.4903 0.731112 -0.0933861 
-0.909542 -1.64445 -2.23247 -2.62106 -2.77553 -2.68206 -2.34901 -0.685103 -1.30901 
-1.81598 -2.16074 -2.31249 -2.25766 -2.00117 -1.56592 -0.990792 -0.327158 0.365701 
1.02589 1.59444 2.02057 2.2662 2.3094 2.14631 1.79149 1.27665 0.647767 
-0.0389796 -0.722244 -1.34099 -1.83996 -2.17456 -2.31492 -2.24849 -1.98121 -1.53696 
-0.955412 -0.288522 0.404141 1.0607 1.62251 2.03939 2.2741 2.30566 2.13127 
1.7665 1.24393 0.610249 -0.0779481 -0.759182 -1.3726 -1.86341 -2.18776 -2.31669 
-2.23868 -1.96069 -0.488216 -0.932821 -1.2941 -1.53978 -1.64792 -1.60885 -1.42607 
-1.1159 -0.706056 -0.233138 0.260605 0.731069 1.13623 1.43989 1.61494 1.64572 
1.5295 1.27665 0.909764 0.46161 -0.0277775 -0.514684 -0.955615 -1.31118 -1.54963 
-1.64965 -1.60231 -1.41185 -1.09526 -0.680843 -0.205606 0.287998 0.755875 1.15623 
1.45331 1.62056 1.64306 1.51878 1.25884 0.886449 0.434874 -0.0555472 -0.541006 
-0.978139 -1.3279 -1.55904 -1.65092 -1.59532 -1.39722 -0.247719 -0.47331 -0.656621 
-0.781278 -0.836147 -0.816324 -0.723582 -0.566205 -0.35825 -0.118293 0.13223 0.370941 
0.576518 0.730595 0.819411 0.835031 0.776061 0.647767 0.46161 0.234219 -0.0140942 
-0.261148 -0.484875 -0.665289 -0.786275 -0.837025 -0.813007 -0.716365 -0.555732 -0.345457 
-0.104323 0.146129 0.383528 0.586668 0.737402 0.822266 0.83368 0.770624 0.63873 
0.44978 0.220653 -0.0281844 -0.274504 -0.496304 -0.673769 -0.79105 -0.837668 -0.809459 
-0.708944 0.0149065 0.0284815 0.0395123 0.0470136 0.0503153 0.0491225 0.0435417 0.0340715 
0.0215578 0.00711833 -0.00795696 -0.0223215 -0.0346921 -0.0439638 -0.0493083 -0.0502482 -0.0466997 
-0.0389796 -0.0277775 -0.0140942 0.000848122 0.0157147 0.0291775 0.040034 0.0473143 0.0503682 
0.0489229 0.0431074 0.0334413 0.020788 0.00627769 -0.00879334 -0.0230789 -0.0353029 -0.0443734 
-0.0494801 -0.0501669 -0.0463725 -0.0384357 -0.0270657 -0.0132779 0.001696 0.0165184 0.0298652 
0.0405443 0.0476016 0.0504069 0.0487094 0.0426609 0.2762 0.527728 0.732116 0.871106 
0.932283 0.910181 0.806776 0.631304 0.39944 0.131894 -0.147433 -0.41359 -0.642803 
-0.814596 -0.913623 -0.931039 -0.865289 -0.722244 -0.514684 -0.261148 0.0157147 0.291174 
0.540624 0.741781 0.876677 0.933263 0.906482 0.798729 0.619627 0.385176 0.116318 
-0.16293 -0.427624 -0.65412 -0.822185 -0.916807 -0.929533 -0.859227 -0.712168 -0.501494 
-0.246023 0.0314249 0.306065 0.553366 0.751236 0.882001 0.933979 0.902527 0.790455 
0.512822 0.979835 1.35932 1.61739 1.73097 1.68994 1.49794 1.17214 0.741641 
0.244888 -0.273739 -0.767914 -1.19349 -1.51246 -1.69633 -1.72866 -1.60658 -1.34099 
-0.955615 -0.484875 0.0291775 0.540624 1.00378 1.37727 1.62773 1.73279 1.68307 
1.483 1.15046 0.715157 0.215968 -0.302513 -0.793971 -1.21451 -1.52655 -1.70224 
-1.72587 -1.59533 -1.32228 -0.931125 -0.456791 0.0583467 0.568273 1.02744 1.39482 
1.63761 1.73412 1.67572 1.46764 0.703635 1.34442 1.8651 2.21919 2.37504 
2.31873 2.0553 1.60828 1.01759 0.336007 -0.375593 -1.05364 -1.63757 -2.07523 
-2.3275 -2.37187 -2.20437 -1.83996 -1.31118 -0.665289 0.040034 0.741781 1.37727 
1.88973 2.23338 2.37754 2.30931 2.0348 1.57853 0.981256 0.296326 -0.415073 
-1.08939 -1.6664 -2.09456 -2.33561 -2.36803 -2.18892 -1.81429 -1.27758 -0.626756 
0.0800566 0.779718 1.40973 1.91381 2.24694 2.37936 2.29923 2.01373 0.831594 
1.5889 2.20428 2.62276 2.80695 2.74041 2.42907 1.90075 1.20265 0.397112 
-0.443896 -1.24525 -1.93537 -2.45261 -2.75077 -2.80321 -2.60524 -2.17456 -1.54963 
-0.786275 0.0473143 0.876677 1.62773 2.23338 2.63953 2.8099 2.72927 2.40484 
1.8656 1.1597 0.350215 -0.490556 -1.28751 -1.96945 -2.47546 -2.76035 -2.79867 
-2.58699 -2.14422 -1.50992 -0.740734 0.0946153 0.921513 1.66609 2.26185 2.65556 
2.81206 2.71736 2.37993 0.885269 1.69146 2.34656 2.79204 2.98813 2.91729 
2.58586 2.02344 1.28027 0.422743 -0.472548 -1.32563 -2.06029 -2.61092 -2.92832 
-2.98414 -2.7734 -2.31492 -1.64965 -0.837025 0.0503682 0.933263 1.73279 2.37754 
2.8099 2.99127 2.90543 2.56006 1.98601 1.23455 0.372819 -0.522219 -1.37061 
-2.09657 -2.63524 -2.93852 -2.97931 -2.75397 -2.28262 -1.60737 -0.788545 0.100722 
0.980992 1.77363 2.40784 2.82696 2.99356 2.89275 2.53354 0.859866 1.64292 
2.27922 2.71193 2.90238 2.83357 2.51165 1.96537 1.24353 0.410613 -0.458988 
-1.28759 -2.00117 -2.536 -2.84429 -2.89851 -2.69381 -2.24849 -1.60231 -0.813007 
0.0489229 0.906482 1.68307 2.30931 2.72927 2.90543 2.82206 2.4866 1.92902 
1.19913 0.362121 -0.507233 -1.33128 -2.0364 -2.55962 -2.8542 -2.89382 -2.67494 
-2.21712 -1.56125 -0.765917 0.097832 0.952842 1.72274 2.33875 2.74584 2.90766 
2.80974 2.46084 0.757654 1.44763 2.00829 2.38956 2.55737 2.49675 2.21309 
1.73175 1.09572 0.361803 -0.404428 -1.13453 -1.76329 -2.23454 -2.50619 -2.55396 
-2.3736 -1.98121 -1.41185 -0.716365 0.0431074 0.798729 1.483 2.0348 2.40484 
2.56006 2.4866 2.19102 1.69972 1.05659 0.319076 -0.446938 -1.17303 -1.79434 
-2.25536 -2.51492 -2.54983 -2.35697 -1.95357 -1.37566 -0.674873 0.0862027 0.839578 
1.51796 2.06074 2.41944 2.56203 2.47575 2.16832 0.587762 1.12302 1.55796 
1.85374 1.98393 1.93689 1.71684 1.34343 0.850019 0.280675 -0.313742 -0.880132 
-1.3679 -1.73348 -1.94422 -1.98128 -1.84136 -1.53696 -1.09526 -0.555732 0.0334413 
0.619627 1.15046 1.57853 1.8656 1.98601 1.92902 1.69972 1.31858 0.819666 
0.247528 -0.34672 -0.909997 -1.39199 -1.74963 -1.95099 -1.97807 -1.82846 -1.51552 
-1.06719 -0.523544 0.0668731 0.651316 1.17758 1.59865 1.87692 1.98753 1.9206 
1.68211 0.365368 0.698099 0.96847 1.15233 1.23326 1.20402 1.06723 0.835113 
0.528393 0.174474 -0.19503 -0.547113 -0.850323 -1.07758 -1.20857 -1.23161 -1.14464 
-0.955412 -0.680843 -0.345457 0.020788 0.385176 0.715157 0.981256 1.1597 1.23455 
1.19913 1.05659 0.819666 0.509525 0.15387 -0.21553 -0.565677 -0.865294 -1.08762 
-1.21279 -1.22962 -1.13662 -0.942083 -0.663395 -0.325448 0.04157 0.404875 0.732013 
0.993763 1.16674 1.2355 1.1939 1.04564 0.110336 0.210817 0.292465 0.347989 
0.372428 0.363599 0.322291 0.252193 0.159568 0.052689 -0.0588964 -0.165221 -0.256787 
-0.325414 -0.364974 -0.371931 -0.345665 -0.288522 -0.205606 -0.104323 0.00627769 0.116318 
0.215968 0.296326 0.350215 0.372819 0.362121 0.319076 0.247528 0.15387 0.0464667 
-0.0650872 -0.170827 -0.261308 -0.328446 -0.366246 -0.371329 -0.343244 -0.284497 -0.200337 
-0.0982811 0.0125536 0.122267 0.221059 0.300104 0.352341 0.373105 0.360541 0.315771 
-0.154551 -0.295297 -0.409665 -0.487438 -0.52167 -0.509303 -0.451442 -0.353254 -0.223511 
-0.073803 0.0824979 0.231429 0.359688 0.455817 0.511229 0.520975 0.484183 0.404141 
0.287998 0.146129 -0.00879334 -0.16293 -0.302513 -0.415073 -0.490556 -0.522219 -0.507233 
-0.446938 -0.34672 -0.21553 -0.0650872 0.0911695 0.239282 0.366021 0.460064 0.51301 
0.520131 0.480791 0.398502 0.280617 0.137665 -0.0175842 -0.171263 -0.309643 -0.420363 
-0.493534 -0.522619 -0.50502 -0.442309 -0.405633 -0.775033 -1.0752 -1.27932 -1.36917 
-1.33671 -1.18485 -0.927146 -0.586625 -0.193702 0.216523 0.607407 0.944033 1.19633 
1.34177 1.36734 1.27078 1.0607 0.755875 0.383528 -0.0230789 -0.427624 -0.793971 
-1.08939 -1.28751 -1.37061 -1.33128 -1.17303 -0.909997 -0.565677 -0.170827 0.239282 
0.628017 0.960653 1.20748 1.34644 1.36513 1.26188 1.0459 0.736504 0.361314 
-0.0461513 -0.449494 -0.812685 -1.10328 -1.29532 -1.37166 -1.32547 -1.16088 -0.620481 
-1.18554 -1.64469 -1.95693 -2.09436 -2.04471 -1.81242 -1.41822 -0.897337 -0.296299 
0.331207 0.929127 1.44405 1.82998 2.05245 2.09157 1.94386 1.62251 1.15623 
0.586668 -0.0353029 -0.65412 -1.21451 -1.6664 -1.96945 -2.09657 -2.0364 -1.79434 
-1.39199 -0.865294 -0.261308 0.366021 0.960653 1.46947 1.84703 2.0596 2.08819 
1.93024 1.59988 1.1266 0.552688 -0.0705958 -0.687573 -1.24313 -1.68765 -1.98141 
-2.09817 -2.02752 -1.77575 -0.779904 -1.49014 -2.06727 -2.45973 -2.63248 -2.57007 
-2.27808 -1.78261 -1.12789 -0.372428 0.416305 1.16785 1.81507 2.30016 2.57979 
2.62897 2.44331 2.03939 1.45331 0.737402 -0.0443734 -0.822185 -1.52655 -2.09456 
-2.47546 -2.63524 -2.55962 -2.25536 -1.74963 -1.08762 -0.328446 0.460064 1.20748 
1.84703 2.32159 2.58878 2.62471 2.42619 2.01094 1.41606 0.694692 -0.0887342 
-0.864234 -1.56253 -2.12126 -2.4905 -2.63726 -2.54846 -2.232 -0.869659 -1.66163 
-2.30518 -2.74281 -2.93544 -2.86585 -2.54026 -1.98776 -1.2577 -0.415289 0.464215 
1.30225 2.02396 2.56488 2.87668 2.93152 2.7245 2.2741 1.62056 0.822266 
-0.0494801 -0.916807 -1.70224 -2.33561 -2.76035 -2.93852 -2.8542 -2.51492 -1.95099 
-1.21279 -0.366246 0.51301 1.34644 2.0596 2.58878 2.88671 2.92678 2.70541 
2.24237 1.57903 0.774641 -0.0989462 -0.963695 -1.74236 -2.36538 -2.77712 -2.94078 
-2.84175 -2.48887 -0.881731 -1.6847 -2.33718 -2.78089 -2.97618 -2.90563 -2.57552 
-2.01535 -1.27516 -0.421054 0.470659 1.32033 2.05206 2.60048 2.91662 2.97221 
2.76231 2.30566 1.64306 0.83368 -0.0501669 -0.929533 -1.72587 -2.36803 -2.79867 
-2.97931 -2.89382 -2.54983 -1.97807 -1.22962 -0.371329 0.520131 1.36513 2.08819 
2.62471 2.92678 2.9674 2.74296 2.2735 1.60095 0.785394 -0.10032 -0.977072 
-1.76654 -2.39822 -2.81566 -2.9816 -2.88119 -2.52342 -0.81504 -1.55728 -2.1604 
-2.57055 -2.75108 -2.68586 -2.38072 -1.86292 -1.17871 -0.389207 0.43506 1.22047 
1.89685 2.40379 2.69601 2.74741 2.55338 2.13127 1.51878 0.770624 -0.0463725 
-0.859227 -1.59533 -2.18892 -2.58699 -2.75397 -2.67494 -2.35697 -1.82846 -1.13662 
-0.343244 0.480791 1.26188 1.93024 2.42619 2.70541 2.74296 2.53549 2.10154 
1.47986 0.725989 -0.0927319 -0.90317 -1.63293 -2.21683 -2.6027 -2.75608 -2.66327 
-2.33256 -0.675545 -1.29074 -1.79065 -2.1306 -2.28022 -2.22617 -1.97325 -1.54408 
-0.976969 -0.322593 0.360599 1.01158 1.5722 1.99238 2.23459 2.27718 2.11637 
1.7665 1.25884 0.63873 -0.0384357 -0.712168 -1.32228 -1.81429 -2.14422 -2.28262 
-2.21712 -1.95357 -1.51552 -0.942083 -0.284497 0.398502 1.0459 1.59988 2.01094 
2.24237 2.2735 2.10154 1.74186 1.22658 0.601735 -0.0768606 -0.74859 -1.35345 
-1.83741 -2.15724 -2.28437 -2.20745 -1.93334 -0.475704 -0.908916 -1.26094 -1.50032 
-1.60569 -1.56762 -1.38952 -1.08731 -0.687961 -0.227164 0.253926 0.712333 1.10711 
1.40299 1.57355 1.60354 1.4903 1.24393 0.886449 0.44978 -0.0270657 -0.501494 
-0.931125 -1.27758 -1.50992 -1.60737 -1.56125 -1.37566 -1.06719 -0.663395 -0.200337 
0.280617 0.736504 1.1266 1.41606 1.57903 1.60095 1.47986 1.22658 0.863731 
0.423729 -0.0541236 -0.527142 -0.953072 -1.29387 -1.51908 -1.60861 -1.55444 -1.36141 
-0.233371 -0.445896 -0.61859 -0.736027 -0.787717 -0.769043 -0.681672 -0.53341 -0.3375 
-0.111442 0.124571 0.349456 0.543126 0.688279 0.771951 0.786667 0.731112 0.610249 
0.434874 0.220653 -0.0132779 -0.246023 -0.456791 -0.626756 -0.740734 -0.788545 -0.765917 
-0.674873 -0.523544 -0.325448 -0.0982811 0.137665 0.361314 0.552688 0.694692 0.774641 
0.785394 0.725989 0.601735 0.423729 0.207873 -0.026552 -0.258605 -0.467558 -0.634745 
-0.745232 -0.78915 -0.762575 -0.667882 0.0298089 0.056955 0.0790135 0.094014 0.100616 
0.0982312 0.0870712 0.0681334 0.0431094 0.0142347 -0.0159117 -0.0446367 -0.0693744 -0.0879151 
-0.0986026 -0.100482 -0.0933861 -0.0779481 -0.0555472 -0.0281844 0.001696 0.0314249 0.0583467 
0.0800566 0.0946153 0.100722 0.097832 0.0862027 0.0668731 0.04157 0.0125536 -0.0175842 
-0.0461513 -0.0705958 -0.0887342 -0.0989462 -0.10032 -0.0927319 -0.0768606 -0.0541236 -0.026552 